graphene nanochannel atom data

2992 atoms

2 atom types

0 34.4 xlo xhi
0 57.8 ylo yhi
0 34.4 zlo zhi

Masses 

1 40
2 12

Atoms

1 2 0.710000 0.000000 0.000000 
2 2 0.000000 0.000000 1.229756 
3 2 0.710000 0.000000 2.459512 
4 2 0.000000 0.000000 3.689268 
5 2 0.710000 0.000000 4.919024 
6 2 0.000000 0.000000 6.148780 
7 2 0.710000 0.000000 7.378536 
8 2 0.000000 0.000000 8.608293 
9 2 0.710000 0.000000 9.838049 
10 2 0.000000 0.000000 11.067805 
11 2 0.710000 0.000000 12.297561 
12 2 0.000000 0.000000 13.527317 
13 2 0.710000 0.000000 14.757073 
14 2 0.000000 0.000000 15.986829 
15 2 0.710000 0.000000 17.216585 
16 2 0.000000 0.000000 18.446341 
17 2 0.710000 0.000000 19.676097 
18 2 0.000000 0.000000 20.905853 
19 2 0.710000 0.000000 22.135609 
20 2 0.000000 0.000000 23.365365 
21 2 0.710000 0.000000 24.595121 
22 2 0.000000 0.000000 25.824878 
23 2 0.710000 0.000000 27.054634 
24 2 0.000000 0.000000 28.284390 
25 2 0.710000 0.000000 29.514146 
26 2 0.000000 0.000000 30.743902 
27 2 0.710000 0.000000 31.973658 
28 2 0.000000 0.000000 33.203414 
29 2 2.130000 0.000000 0.000000 
30 2 2.840000 0.000000 1.229756 
31 2 2.130000 0.000000 2.459512 
32 2 2.840000 0.000000 3.689268 
33 2 2.130000 0.000000 4.919024 
34 2 2.840000 0.000000 6.148780 
35 2 2.130000 0.000000 7.378536 
36 2 2.840000 0.000000 8.608293 
37 2 2.130000 0.000000 9.838049 
38 2 2.840000 0.000000 11.067805 
39 2 2.130000 0.000000 12.297561 
40 2 2.840000 0.000000 13.527317 
41 2 2.130000 0.000000 14.757073 
42 2 2.840000 0.000000 15.986829 
43 2 2.130000 0.000000 17.216585 
44 2 2.840000 0.000000 18.446341 
45 2 2.130000 0.000000 19.676097 
46 2 2.840000 0.000000 20.905853 
47 2 2.130000 0.000000 22.135609 
48 2 2.840000 0.000000 23.365365 
49 2 2.130000 0.000000 24.595121 
50 2 2.840000 0.000000 25.824878 
51 2 2.130000 0.000000 27.054634 
52 2 2.840000 0.000000 28.284390 
53 2 2.130000 0.000000 29.514146 
54 2 2.840000 0.000000 30.743902 
55 2 2.130000 0.000000 31.973658 
56 2 2.840000 0.000000 33.203414 
57 2 4.970000 0.000000 0.000000 
58 2 4.260000 0.000000 1.229756 
59 2 4.970000 0.000000 2.459512 
60 2 4.260000 0.000000 3.689268 
61 2 4.970000 0.000000 4.919024 
62 2 4.260000 0.000000 6.148780 
63 2 4.970000 0.000000 7.378536 
64 2 4.260000 0.000000 8.608293 
65 2 4.970000 0.000000 9.838049 
66 2 4.260000 0.000000 11.067805 
67 2 4.970000 0.000000 12.297561 
68 2 4.260000 0.000000 13.527317 
69 2 4.970000 0.000000 14.757073 
70 2 4.260000 0.000000 15.986829 
71 2 4.970000 0.000000 17.216585 
72 2 4.260000 0.000000 18.446341 
73 2 4.970000 0.000000 19.676097 
74 2 4.260000 0.000000 20.905853 
75 2 4.970000 0.000000 22.135609 
76 2 4.260000 0.000000 23.365365 
77 2 4.970000 0.000000 24.595121 
78 2 4.260000 0.000000 25.824878 
79 2 4.970000 0.000000 27.054634 
80 2 4.260000 0.000000 28.284390 
81 2 4.970000 0.000000 29.514146 
82 2 4.260000 0.000000 30.743902 
83 2 4.970000 0.000000 31.973658 
84 2 4.260000 0.000000 33.203414 
85 2 6.390000 0.000000 0.000000 
86 2 7.100000 0.000000 1.229756 
87 2 6.390000 0.000000 2.459512 
88 2 7.100000 0.000000 3.689268 
89 2 6.390000 0.000000 4.919024 
90 2 7.100000 0.000000 6.148780 
91 2 6.390000 0.000000 7.378536 
92 2 7.100000 0.000000 8.608293 
93 2 6.390000 0.000000 9.838049 
94 2 7.100000 0.000000 11.067805 
95 2 6.390000 0.000000 12.297561 
96 2 7.100000 0.000000 13.527317 
97 2 6.390000 0.000000 14.757073 
98 2 7.100000 0.000000 15.986829 
99 2 6.390000 0.000000 17.216585 
100 2 7.100000 0.000000 18.446341 
101 2 6.390000 0.000000 19.676097 
102 2 7.100000 0.000000 20.905853 
103 2 6.390000 0.000000 22.135609 
104 2 7.100000 0.000000 23.365365 
105 2 6.390000 0.000000 24.595121 
106 2 7.100000 0.000000 25.824878 
107 2 6.390000 0.000000 27.054634 
108 2 7.100000 0.000000 28.284390 
109 2 6.390000 0.000000 29.514146 
110 2 7.100000 0.000000 30.743902 
111 2 6.390000 0.000000 31.973658 
112 2 7.100000 0.000000 33.203414 
113 2 9.230000 0.000000 0.000000 
114 2 8.520000 0.000000 1.229756 
115 2 9.230000 0.000000 2.459512 
116 2 8.520000 0.000000 3.689268 
117 2 9.230000 0.000000 4.919024 
118 2 8.520000 0.000000 6.148780 
119 2 9.230000 0.000000 7.378536 
120 2 8.520000 0.000000 8.608293 
121 2 9.230000 0.000000 9.838049 
122 2 8.520000 0.000000 11.067805 
123 2 9.230000 0.000000 12.297561 
124 2 8.520000 0.000000 13.527317 
125 2 9.230000 0.000000 14.757073 
126 2 8.520000 0.000000 15.986829 
127 2 9.230000 0.000000 17.216585 
128 2 8.520000 0.000000 18.446341 
129 2 9.230000 0.000000 19.676097 
130 2 8.520000 0.000000 20.905853 
131 2 9.230000 0.000000 22.135609 
132 2 8.520000 0.000000 23.365365 
133 2 9.230000 0.000000 24.595121 
134 2 8.520000 0.000000 25.824878 
135 2 9.230000 0.000000 27.054634 
136 2 8.520000 0.000000 28.284390 
137 2 9.230000 0.000000 29.514146 
138 2 8.520000 0.000000 30.743902 
139 2 9.230000 0.000000 31.973658 
140 2 8.520000 0.000000 33.203414 
141 2 10.650000 0.000000 0.000000 
142 2 11.360000 0.000000 1.229756 
143 2 10.650000 0.000000 2.459512 
144 2 11.360000 0.000000 3.689268 
145 2 10.650000 0.000000 4.919024 
146 2 11.360000 0.000000 6.148780 
147 2 10.650000 0.000000 7.378536 
148 2 11.360000 0.000000 8.608293 
149 2 10.650000 0.000000 9.838049 
150 2 11.360000 0.000000 11.067805 
151 2 10.650000 0.000000 12.297561 
152 2 11.360000 0.000000 13.527317 
153 2 10.650000 0.000000 14.757073 
154 2 11.360000 0.000000 15.986829 
155 2 10.650000 0.000000 17.216585 
156 2 11.360000 0.000000 18.446341 
157 2 10.650000 0.000000 19.676097 
158 2 11.360000 0.000000 20.905853 
159 2 10.650000 0.000000 22.135609 
160 2 11.360000 0.000000 23.365365 
161 2 10.650000 0.000000 24.595121 
162 2 11.360000 0.000000 25.824878 
163 2 10.650000 0.000000 27.054634 
164 2 11.360000 0.000000 28.284390 
165 2 10.650000 0.000000 29.514146 
166 2 11.360000 0.000000 30.743902 
167 2 10.650000 0.000000 31.973658 
168 2 11.360000 0.000000 33.203414 
169 2 13.490000 0.000000 0.000000 
170 2 12.780000 0.000000 1.229756 
171 2 13.490000 0.000000 2.459512 
172 2 12.780000 0.000000 3.689268 
173 2 13.490000 0.000000 4.919024 
174 2 12.780000 0.000000 6.148780 
175 2 13.490000 0.000000 7.378536 
176 2 12.780000 0.000000 8.608293 
177 2 13.490000 0.000000 9.838049 
178 2 12.780000 0.000000 11.067805 
179 2 13.490000 0.000000 12.297561 
180 2 12.780000 0.000000 13.527317 
181 2 13.490000 0.000000 14.757073 
182 2 12.780000 0.000000 15.986829 
183 2 13.490000 0.000000 17.216585 
184 2 12.780000 0.000000 18.446341 
185 2 13.490000 0.000000 19.676097 
186 2 12.780000 0.000000 20.905853 
187 2 13.490000 0.000000 22.135609 
188 2 12.780000 0.000000 23.365365 
189 2 13.490000 0.000000 24.595121 
190 2 12.780000 0.000000 25.824878 
191 2 13.490000 0.000000 27.054634 
192 2 12.780000 0.000000 28.284390 
193 2 13.490000 0.000000 29.514146 
194 2 12.780000 0.000000 30.743902 
195 2 13.490000 0.000000 31.973658 
196 2 12.780000 0.000000 33.203414 
197 2 14.910000 0.000000 0.000000 
198 2 15.620000 0.000000 1.229756 
199 2 14.910000 0.000000 2.459512 
200 2 15.620000 0.000000 3.689268 
201 2 14.910000 0.000000 4.919024 
202 2 15.620000 0.000000 6.148780 
203 2 14.910000 0.000000 7.378536 
204 2 15.620000 0.000000 8.608293 
205 2 14.910000 0.000000 9.838049 
206 2 15.620000 0.000000 11.067805 
207 2 14.910000 0.000000 12.297561 
208 2 15.620000 0.000000 13.527317 
209 2 14.910000 0.000000 14.757073 
210 2 15.620000 0.000000 15.986829 
211 2 14.910000 0.000000 17.216585 
212 2 15.620000 0.000000 18.446341 
213 2 14.910000 0.000000 19.676097 
214 2 15.620000 0.000000 20.905853 
215 2 14.910000 0.000000 22.135609 
216 2 15.620000 0.000000 23.365365 
217 2 14.910000 0.000000 24.595121 
218 2 15.620000 0.000000 25.824878 
219 2 14.910000 0.000000 27.054634 
220 2 15.620000 0.000000 28.284390 
221 2 14.910000 0.000000 29.514146 
222 2 15.620000 0.000000 30.743902 
223 2 14.910000 0.000000 31.973658 
224 2 15.620000 0.000000 33.203414 
225 2 17.750000 0.000000 0.000000 
226 2 17.040000 0.000000 1.229756 
227 2 17.750000 0.000000 2.459512 
228 2 17.040000 0.000000 3.689268 
229 2 17.750000 0.000000 4.919024 
230 2 17.040000 0.000000 6.148780 
231 2 17.750000 0.000000 7.378536 
232 2 17.040000 0.000000 8.608293 
233 2 17.750000 0.000000 9.838049 
234 2 17.040000 0.000000 11.067805 
235 2 17.750000 0.000000 12.297561 
236 2 17.040000 0.000000 13.527317 
237 2 17.750000 0.000000 14.757073 
238 2 17.040000 0.000000 15.986829 
239 2 17.750000 0.000000 17.216585 
240 2 17.040000 0.000000 18.446341 
241 2 17.750000 0.000000 19.676097 
242 2 17.040000 0.000000 20.905853 
243 2 17.750000 0.000000 22.135609 
244 2 17.040000 0.000000 23.365365 
245 2 17.750000 0.000000 24.595121 
246 2 17.040000 0.000000 25.824878 
247 2 17.750000 0.000000 27.054634 
248 2 17.040000 0.000000 28.284390 
249 2 17.750000 0.000000 29.514146 
250 2 17.040000 0.000000 30.743902 
251 2 17.750000 0.000000 31.973658 
252 2 17.040000 0.000000 33.203414 
253 2 19.170000 0.000000 0.000000 
254 2 19.880000 0.000000 1.229756 
255 2 19.170000 0.000000 2.459512 
256 2 19.880000 0.000000 3.689268 
257 2 19.170000 0.000000 4.919024 
258 2 19.880000 0.000000 6.148780 
259 2 19.170000 0.000000 7.378536 
260 2 19.880000 0.000000 8.608293 
261 2 19.170000 0.000000 9.838049 
262 2 19.880000 0.000000 11.067805 
263 2 19.170000 0.000000 12.297561 
264 2 19.880000 0.000000 13.527317 
265 2 19.170000 0.000000 14.757073 
266 2 19.880000 0.000000 15.986829 
267 2 19.170000 0.000000 17.216585 
268 2 19.880000 0.000000 18.446341 
269 2 19.170000 0.000000 19.676097 
270 2 19.880000 0.000000 20.905853 
271 2 19.170000 0.000000 22.135609 
272 2 19.880000 0.000000 23.365365 
273 2 19.170000 0.000000 24.595121 
274 2 19.880000 0.000000 25.824878 
275 2 19.170000 0.000000 27.054634 
276 2 19.880000 0.000000 28.284390 
277 2 19.170000 0.000000 29.514146 
278 2 19.880000 0.000000 30.743902 
279 2 19.170000 0.000000 31.973658 
280 2 19.880000 0.000000 33.203414 
281 2 22.010000 0.000000 0.000000 
282 2 21.300000 0.000000 1.229756 
283 2 22.010000 0.000000 2.459512 
284 2 21.300000 0.000000 3.689268 
285 2 22.010000 0.000000 4.919024 
286 2 21.300000 0.000000 6.148780 
287 2 22.010000 0.000000 7.378536 
288 2 21.300000 0.000000 8.608293 
289 2 22.010000 0.000000 9.838049 
290 2 21.300000 0.000000 11.067805 
291 2 22.010000 0.000000 12.297561 
292 2 21.300000 0.000000 13.527317 
293 2 22.010000 0.000000 14.757073 
294 2 21.300000 0.000000 15.986829 
295 2 22.010000 0.000000 17.216585 
296 2 21.300000 0.000000 18.446341 
297 2 22.010000 0.000000 19.676097 
298 2 21.300000 0.000000 20.905853 
299 2 22.010000 0.000000 22.135609 
300 2 21.300000 0.000000 23.365365 
301 2 22.010000 0.000000 24.595121 
302 2 21.300000 0.000000 25.824878 
303 2 22.010000 0.000000 27.054634 
304 2 21.300000 0.000000 28.284390 
305 2 22.010000 0.000000 29.514146 
306 2 21.300000 0.000000 30.743902 
307 2 22.010000 0.000000 31.973658 
308 2 21.300000 0.000000 33.203414 
309 2 23.430000 0.000000 0.000000 
310 2 24.140000 0.000000 1.229756 
311 2 23.430000 0.000000 2.459512 
312 2 24.140000 0.000000 3.689268 
313 2 23.430000 0.000000 4.919024 
314 2 24.140000 0.000000 6.148780 
315 2 23.430000 0.000000 7.378536 
316 2 24.140000 0.000000 8.608293 
317 2 23.430000 0.000000 9.838049 
318 2 24.140000 0.000000 11.067805 
319 2 23.430000 0.000000 12.297561 
320 2 24.140000 0.000000 13.527317 
321 2 23.430000 0.000000 14.757073 
322 2 24.140000 0.000000 15.986829 
323 2 23.430000 0.000000 17.216585 
324 2 24.140000 0.000000 18.446341 
325 2 23.430000 0.000000 19.676097 
326 2 24.140000 0.000000 20.905853 
327 2 23.430000 0.000000 22.135609 
328 2 24.140000 0.000000 23.365365 
329 2 23.430000 0.000000 24.595121 
330 2 24.140000 0.000000 25.824878 
331 2 23.430000 0.000000 27.054634 
332 2 24.140000 0.000000 28.284390 
333 2 23.430000 0.000000 29.514146 
334 2 24.140000 0.000000 30.743902 
335 2 23.430000 0.000000 31.973658 
336 2 24.140000 0.000000 33.203414 
337 2 26.270000 0.000000 0.000000 
338 2 25.560000 0.000000 1.229756 
339 2 26.270000 0.000000 2.459512 
340 2 25.560000 0.000000 3.689268 
341 2 26.270000 0.000000 4.919024 
342 2 25.560000 0.000000 6.148780 
343 2 26.270000 0.000000 7.378536 
344 2 25.560000 0.000000 8.608293 
345 2 26.270000 0.000000 9.838049 
346 2 25.560000 0.000000 11.067805 
347 2 26.270000 0.000000 12.297561 
348 2 25.560000 0.000000 13.527317 
349 2 26.270000 0.000000 14.757073 
350 2 25.560000 0.000000 15.986829 
351 2 26.270000 0.000000 17.216585 
352 2 25.560000 0.000000 18.446341 
353 2 26.270000 0.000000 19.676097 
354 2 25.560000 0.000000 20.905853 
355 2 26.270000 0.000000 22.135609 
356 2 25.560000 0.000000 23.365365 
357 2 26.270000 0.000000 24.595121 
358 2 25.560000 0.000000 25.824878 
359 2 26.270000 0.000000 27.054634 
360 2 25.560000 0.000000 28.284390 
361 2 26.270000 0.000000 29.514146 
362 2 25.560000 0.000000 30.743902 
363 2 26.270000 0.000000 31.973658 
364 2 25.560000 0.000000 33.203414 
365 2 27.690000 0.000000 0.000000 
366 2 28.400000 0.000000 1.229756 
367 2 27.690000 0.000000 2.459512 
368 2 28.400000 0.000000 3.689268 
369 2 27.690000 0.000000 4.919024 
370 2 28.400000 0.000000 6.148780 
371 2 27.690000 0.000000 7.378536 
372 2 28.400000 0.000000 8.608293 
373 2 27.690000 0.000000 9.838049 
374 2 28.400000 0.000000 11.067805 
375 2 27.690000 0.000000 12.297561 
376 2 28.400000 0.000000 13.527317 
377 2 27.690000 0.000000 14.757073 
378 2 28.400000 0.000000 15.986829 
379 2 27.690000 0.000000 17.216585 
380 2 28.400000 0.000000 18.446341 
381 2 27.690000 0.000000 19.676097 
382 2 28.400000 0.000000 20.905853 
383 2 27.690000 0.000000 22.135609 
384 2 28.400000 0.000000 23.365365 
385 2 27.690000 0.000000 24.595121 
386 2 28.400000 0.000000 25.824878 
387 2 27.690000 0.000000 27.054634 
388 2 28.400000 0.000000 28.284390 
389 2 27.690000 0.000000 29.514146 
390 2 28.400000 0.000000 30.743902 
391 2 27.690000 0.000000 31.973658 
392 2 28.400000 0.000000 33.203414 
393 2 30.530000 0.000000 0.000000 
394 2 29.820000 0.000000 1.229756 
395 2 30.530000 0.000000 2.459512 
396 2 29.820000 0.000000 3.689268 
397 2 30.530000 0.000000 4.919024 
398 2 29.820000 0.000000 6.148780 
399 2 30.530000 0.000000 7.378536 
400 2 29.820000 0.000000 8.608293 
401 2 30.530000 0.000000 9.838049 
402 2 29.820000 0.000000 11.067805 
403 2 30.530000 0.000000 12.297561 
404 2 29.820000 0.000000 13.527317 
405 2 30.530000 0.000000 14.757073 
406 2 29.820000 0.000000 15.986829 
407 2 30.530000 0.000000 17.216585 
408 2 29.820000 0.000000 18.446341 
409 2 30.530000 0.000000 19.676097 
410 2 29.820000 0.000000 20.905853 
411 2 30.530000 0.000000 22.135609 
412 2 29.820000 0.000000 23.365365 
413 2 30.530000 0.000000 24.595121 
414 2 29.820000 0.000000 25.824878 
415 2 30.530000 0.000000 27.054634 
416 2 29.820000 0.000000 28.284390 
417 2 30.530000 0.000000 29.514146 
418 2 29.820000 0.000000 30.743902 
419 2 30.530000 0.000000 31.973658 
420 2 29.820000 0.000000 33.203414 
421 2 31.950000 0.000000 0.000000 
422 2 32.660000 0.000000 1.229756 
423 2 31.950000 0.000000 2.459512 
424 2 32.660000 0.000000 3.689268 
425 2 31.950000 0.000000 4.919024 
426 2 32.660000 0.000000 6.148780 
427 2 31.950000 0.000000 7.378536 
428 2 32.660000 0.000000 8.608293 
429 2 31.950000 0.000000 9.838049 
430 2 32.660000 0.000000 11.067805 
431 2 31.950000 0.000000 12.297561 
432 2 32.660000 0.000000 13.527317 
433 2 31.950000 0.000000 14.757073 
434 2 32.660000 0.000000 15.986829 
435 2 31.950000 0.000000 17.216585 
436 2 32.660000 0.000000 18.446341 
437 2 31.950000 0.000000 19.676097 
438 2 32.660000 0.000000 20.905853 
439 2 31.950000 0.000000 22.135609 
440 2 32.660000 0.000000 23.365365 
441 2 31.950000 0.000000 24.595121 
442 2 32.660000 0.000000 25.824878 
443 2 31.950000 0.000000 27.054634 
444 2 32.660000 0.000000 28.284390 
445 2 31.950000 0.000000 29.514146 
446 2 32.660000 0.000000 30.743902 
447 2 31.950000 0.000000 31.973658 
448 2 32.660000 0.000000 33.203414 
449 2 0.710000 3.400000 0.000000 
450 2 0.000000 3.400000 1.229756 
451 2 0.710000 3.400000 2.459512 
452 2 0.000000 3.400000 3.689268 
453 2 0.710000 3.400000 4.919024 
454 2 0.000000 3.400000 6.148780 
455 2 0.710000 3.400000 7.378536 
456 2 0.000000 3.400000 8.608293 
457 2 0.710000 3.400000 9.838049 
458 2 0.000000 3.400000 11.067805 
459 2 0.710000 3.400000 12.297561 
460 2 0.000000 3.400000 13.527317 
461 2 0.710000 3.400000 14.757073 
462 2 0.000000 3.400000 15.986829 
463 2 0.710000 3.400000 17.216585 
464 2 0.000000 3.400000 18.446341 
465 2 0.710000 3.400000 19.676097 
466 2 0.000000 3.400000 20.905853 
467 2 0.710000 3.400000 22.135609 
468 2 0.000000 3.400000 23.365365 
469 2 0.710000 3.400000 24.595121 
470 2 0.000000 3.400000 25.824878 
471 2 0.710000 3.400000 27.054634 
472 2 0.000000 3.400000 28.284390 
473 2 0.710000 3.400000 29.514146 
474 2 0.000000 3.400000 30.743902 
475 2 0.710000 3.400000 31.973658 
476 2 0.000000 3.400000 33.203414 
477 2 2.130000 3.400000 0.000000 
478 2 2.840000 3.400000 1.229756 
479 2 2.130000 3.400000 2.459512 
480 2 2.840000 3.400000 3.689268 
481 2 2.130000 3.400000 4.919024 
482 2 2.840000 3.400000 6.148780 
483 2 2.130000 3.400000 7.378536 
484 2 2.840000 3.400000 8.608293 
485 2 2.130000 3.400000 9.838049 
486 2 2.840000 3.400000 11.067805 
487 2 2.130000 3.400000 12.297561 
488 2 2.840000 3.400000 13.527317 
489 2 2.130000 3.400000 14.757073 
490 2 2.840000 3.400000 15.986829 
491 2 2.130000 3.400000 17.216585 
492 2 2.840000 3.400000 18.446341 
493 2 2.130000 3.400000 19.676097 
494 2 2.840000 3.400000 20.905853 
495 2 2.130000 3.400000 22.135609 
496 2 2.840000 3.400000 23.365365 
497 2 2.130000 3.400000 24.595121 
498 2 2.840000 3.400000 25.824878 
499 2 2.130000 3.400000 27.054634 
500 2 2.840000 3.400000 28.284390 
501 2 2.130000 3.400000 29.514146 
502 2 2.840000 3.400000 30.743902 
503 2 2.130000 3.400000 31.973658 
504 2 2.840000 3.400000 33.203414 
505 2 4.970000 3.400000 0.000000 
506 2 4.260000 3.400000 1.229756 
507 2 4.970000 3.400000 2.459512 
508 2 4.260000 3.400000 3.689268 
509 2 4.970000 3.400000 4.919024 
510 2 4.260000 3.400000 6.148780 
511 2 4.970000 3.400000 7.378536 
512 2 4.260000 3.400000 8.608293 
513 2 4.970000 3.400000 9.838049 
514 2 4.260000 3.400000 11.067805 
515 2 4.970000 3.400000 12.297561 
516 2 4.260000 3.400000 13.527317 
517 2 4.970000 3.400000 14.757073 
518 2 4.260000 3.400000 15.986829 
519 2 4.970000 3.400000 17.216585 
520 2 4.260000 3.400000 18.446341 
521 2 4.970000 3.400000 19.676097 
522 2 4.260000 3.400000 20.905853 
523 2 4.970000 3.400000 22.135609 
524 2 4.260000 3.400000 23.365365 
525 2 4.970000 3.400000 24.595121 
526 2 4.260000 3.400000 25.824878 
527 2 4.970000 3.400000 27.054634 
528 2 4.260000 3.400000 28.284390 
529 2 4.970000 3.400000 29.514146 
530 2 4.260000 3.400000 30.743902 
531 2 4.970000 3.400000 31.973658 
532 2 4.260000 3.400000 33.203414 
533 2 6.390000 3.400000 0.000000 
534 2 7.100000 3.400000 1.229756 
535 2 6.390000 3.400000 2.459512 
536 2 7.100000 3.400000 3.689268 
537 2 6.390000 3.400000 4.919024 
538 2 7.100000 3.400000 6.148780 
539 2 6.390000 3.400000 7.378536 
540 2 7.100000 3.400000 8.608293 
541 2 6.390000 3.400000 9.838049 
542 2 7.100000 3.400000 11.067805 
543 2 6.390000 3.400000 12.297561 
544 2 7.100000 3.400000 13.527317 
545 2 6.390000 3.400000 14.757073 
546 2 7.100000 3.400000 15.986829 
547 2 6.390000 3.400000 17.216585 
548 2 7.100000 3.400000 18.446341 
549 2 6.390000 3.400000 19.676097 
550 2 7.100000 3.400000 20.905853 
551 2 6.390000 3.400000 22.135609 
552 2 7.100000 3.400000 23.365365 
553 2 6.390000 3.400000 24.595121 
554 2 7.100000 3.400000 25.824878 
555 2 6.390000 3.400000 27.054634 
556 2 7.100000 3.400000 28.284390 
557 2 6.390000 3.400000 29.514146 
558 2 7.100000 3.400000 30.743902 
559 2 6.390000 3.400000 31.973658 
560 2 7.100000 3.400000 33.203414 
561 2 9.230000 3.400000 0.000000 
562 2 8.520000 3.400000 1.229756 
563 2 9.230000 3.400000 2.459512 
564 2 8.520000 3.400000 3.689268 
565 2 9.230000 3.400000 4.919024 
566 2 8.520000 3.400000 6.148780 
567 2 9.230000 3.400000 7.378536 
568 2 8.520000 3.400000 8.608293 
569 2 9.230000 3.400000 9.838049 
570 2 8.520000 3.400000 11.067805 
571 2 9.230000 3.400000 12.297561 
572 2 8.520000 3.400000 13.527317 
573 2 9.230000 3.400000 14.757073 
574 2 8.520000 3.400000 15.986829 
575 2 9.230000 3.400000 17.216585 
576 2 8.520000 3.400000 18.446341 
577 2 9.230000 3.400000 19.676097 
578 2 8.520000 3.400000 20.905853 
579 2 9.230000 3.400000 22.135609 
580 2 8.520000 3.400000 23.365365 
581 2 9.230000 3.400000 24.595121 
582 2 8.520000 3.400000 25.824878 
583 2 9.230000 3.400000 27.054634 
584 2 8.520000 3.400000 28.284390 
585 2 9.230000 3.400000 29.514146 
586 2 8.520000 3.400000 30.743902 
587 2 9.230000 3.400000 31.973658 
588 2 8.520000 3.400000 33.203414 
589 2 10.650000 3.400000 0.000000 
590 2 11.360000 3.400000 1.229756 
591 2 10.650000 3.400000 2.459512 
592 2 11.360000 3.400000 3.689268 
593 2 10.650000 3.400000 4.919024 
594 2 11.360000 3.400000 6.148780 
595 2 10.650000 3.400000 7.378536 
596 2 11.360000 3.400000 8.608293 
597 2 10.650000 3.400000 9.838049 
598 2 11.360000 3.400000 11.067805 
599 2 10.650000 3.400000 12.297561 
600 2 11.360000 3.400000 13.527317 
601 2 10.650000 3.400000 14.757073 
602 2 11.360000 3.400000 15.986829 
603 2 10.650000 3.400000 17.216585 
604 2 11.360000 3.400000 18.446341 
605 2 10.650000 3.400000 19.676097 
606 2 11.360000 3.400000 20.905853 
607 2 10.650000 3.400000 22.135609 
608 2 11.360000 3.400000 23.365365 
609 2 10.650000 3.400000 24.595121 
610 2 11.360000 3.400000 25.824878 
611 2 10.650000 3.400000 27.054634 
612 2 11.360000 3.400000 28.284390 
613 2 10.650000 3.400000 29.514146 
614 2 11.360000 3.400000 30.743902 
615 2 10.650000 3.400000 31.973658 
616 2 11.360000 3.400000 33.203414 
617 2 13.490000 3.400000 0.000000 
618 2 12.780000 3.400000 1.229756 
619 2 13.490000 3.400000 2.459512 
620 2 12.780000 3.400000 3.689268 
621 2 13.490000 3.400000 4.919024 
622 2 12.780000 3.400000 6.148780 
623 2 13.490000 3.400000 7.378536 
624 2 12.780000 3.400000 8.608293 
625 2 13.490000 3.400000 9.838049 
626 2 12.780000 3.400000 11.067805 
627 2 13.490000 3.400000 12.297561 
628 2 12.780000 3.400000 13.527317 
629 2 13.490000 3.400000 14.757073 
630 2 12.780000 3.400000 15.986829 
631 2 13.490000 3.400000 17.216585 
632 2 12.780000 3.400000 18.446341 
633 2 13.490000 3.400000 19.676097 
634 2 12.780000 3.400000 20.905853 
635 2 13.490000 3.400000 22.135609 
636 2 12.780000 3.400000 23.365365 
637 2 13.490000 3.400000 24.595121 
638 2 12.780000 3.400000 25.824878 
639 2 13.490000 3.400000 27.054634 
640 2 12.780000 3.400000 28.284390 
641 2 13.490000 3.400000 29.514146 
642 2 12.780000 3.400000 30.743902 
643 2 13.490000 3.400000 31.973658 
644 2 12.780000 3.400000 33.203414 
645 2 14.910000 3.400000 0.000000 
646 2 15.620000 3.400000 1.229756 
647 2 14.910000 3.400000 2.459512 
648 2 15.620000 3.400000 3.689268 
649 2 14.910000 3.400000 4.919024 
650 2 15.620000 3.400000 6.148780 
651 2 14.910000 3.400000 7.378536 
652 2 15.620000 3.400000 8.608293 
653 2 14.910000 3.400000 9.838049 
654 2 15.620000 3.400000 11.067805 
655 2 14.910000 3.400000 12.297561 
656 2 15.620000 3.400000 13.527317 
657 2 14.910000 3.400000 14.757073 
658 2 15.620000 3.400000 15.986829 
659 2 14.910000 3.400000 17.216585 
660 2 15.620000 3.400000 18.446341 
661 2 14.910000 3.400000 19.676097 
662 2 15.620000 3.400000 20.905853 
663 2 14.910000 3.400000 22.135609 
664 2 15.620000 3.400000 23.365365 
665 2 14.910000 3.400000 24.595121 
666 2 15.620000 3.400000 25.824878 
667 2 14.910000 3.400000 27.054634 
668 2 15.620000 3.400000 28.284390 
669 2 14.910000 3.400000 29.514146 
670 2 15.620000 3.400000 30.743902 
671 2 14.910000 3.400000 31.973658 
672 2 15.620000 3.400000 33.203414 
673 2 17.750000 3.400000 0.000000 
674 2 17.040000 3.400000 1.229756 
675 2 17.750000 3.400000 2.459512 
676 2 17.040000 3.400000 3.689268 
677 2 17.750000 3.400000 4.919024 
678 2 17.040000 3.400000 6.148780 
679 2 17.750000 3.400000 7.378536 
680 2 17.040000 3.400000 8.608293 
681 2 17.750000 3.400000 9.838049 
682 2 17.040000 3.400000 11.067805 
683 2 17.750000 3.400000 12.297561 
684 2 17.040000 3.400000 13.527317 
685 2 17.750000 3.400000 14.757073 
686 2 17.040000 3.400000 15.986829 
687 2 17.750000 3.400000 17.216585 
688 2 17.040000 3.400000 18.446341 
689 2 17.750000 3.400000 19.676097 
690 2 17.040000 3.400000 20.905853 
691 2 17.750000 3.400000 22.135609 
692 2 17.040000 3.400000 23.365365 
693 2 17.750000 3.400000 24.595121 
694 2 17.040000 3.400000 25.824878 
695 2 17.750000 3.400000 27.054634 
696 2 17.040000 3.400000 28.284390 
697 2 17.750000 3.400000 29.514146 
698 2 17.040000 3.400000 30.743902 
699 2 17.750000 3.400000 31.973658 
700 2 17.040000 3.400000 33.203414 
701 2 19.170000 3.400000 0.000000 
702 2 19.880000 3.400000 1.229756 
703 2 19.170000 3.400000 2.459512 
704 2 19.880000 3.400000 3.689268 
705 2 19.170000 3.400000 4.919024 
706 2 19.880000 3.400000 6.148780 
707 2 19.170000 3.400000 7.378536 
708 2 19.880000 3.400000 8.608293 
709 2 19.170000 3.400000 9.838049 
710 2 19.880000 3.400000 11.067805 
711 2 19.170000 3.400000 12.297561 
712 2 19.880000 3.400000 13.527317 
713 2 19.170000 3.400000 14.757073 
714 2 19.880000 3.400000 15.986829 
715 2 19.170000 3.400000 17.216585 
716 2 19.880000 3.400000 18.446341 
717 2 19.170000 3.400000 19.676097 
718 2 19.880000 3.400000 20.905853 
719 2 19.170000 3.400000 22.135609 
720 2 19.880000 3.400000 23.365365 
721 2 19.170000 3.400000 24.595121 
722 2 19.880000 3.400000 25.824878 
723 2 19.170000 3.400000 27.054634 
724 2 19.880000 3.400000 28.284390 
725 2 19.170000 3.400000 29.514146 
726 2 19.880000 3.400000 30.743902 
727 2 19.170000 3.400000 31.973658 
728 2 19.880000 3.400000 33.203414 
729 2 22.010000 3.400000 0.000000 
730 2 21.300000 3.400000 1.229756 
731 2 22.010000 3.400000 2.459512 
732 2 21.300000 3.400000 3.689268 
733 2 22.010000 3.400000 4.919024 
734 2 21.300000 3.400000 6.148780 
735 2 22.010000 3.400000 7.378536 
736 2 21.300000 3.400000 8.608293 
737 2 22.010000 3.400000 9.838049 
738 2 21.300000 3.400000 11.067805 
739 2 22.010000 3.400000 12.297561 
740 2 21.300000 3.400000 13.527317 
741 2 22.010000 3.400000 14.757073 
742 2 21.300000 3.400000 15.986829 
743 2 22.010000 3.400000 17.216585 
744 2 21.300000 3.400000 18.446341 
745 2 22.010000 3.400000 19.676097 
746 2 21.300000 3.400000 20.905853 
747 2 22.010000 3.400000 22.135609 
748 2 21.300000 3.400000 23.365365 
749 2 22.010000 3.400000 24.595121 
750 2 21.300000 3.400000 25.824878 
751 2 22.010000 3.400000 27.054634 
752 2 21.300000 3.400000 28.284390 
753 2 22.010000 3.400000 29.514146 
754 2 21.300000 3.400000 30.743902 
755 2 22.010000 3.400000 31.973658 
756 2 21.300000 3.400000 33.203414 
757 2 23.430000 3.400000 0.000000 
758 2 24.140000 3.400000 1.229756 
759 2 23.430000 3.400000 2.459512 
760 2 24.140000 3.400000 3.689268 
761 2 23.430000 3.400000 4.919024 
762 2 24.140000 3.400000 6.148780 
763 2 23.430000 3.400000 7.378536 
764 2 24.140000 3.400000 8.608293 
765 2 23.430000 3.400000 9.838049 
766 2 24.140000 3.400000 11.067805 
767 2 23.430000 3.400000 12.297561 
768 2 24.140000 3.400000 13.527317 
769 2 23.430000 3.400000 14.757073 
770 2 24.140000 3.400000 15.986829 
771 2 23.430000 3.400000 17.216585 
772 2 24.140000 3.400000 18.446341 
773 2 23.430000 3.400000 19.676097 
774 2 24.140000 3.400000 20.905853 
775 2 23.430000 3.400000 22.135609 
776 2 24.140000 3.400000 23.365365 
777 2 23.430000 3.400000 24.595121 
778 2 24.140000 3.400000 25.824878 
779 2 23.430000 3.400000 27.054634 
780 2 24.140000 3.400000 28.284390 
781 2 23.430000 3.400000 29.514146 
782 2 24.140000 3.400000 30.743902 
783 2 23.430000 3.400000 31.973658 
784 2 24.140000 3.400000 33.203414 
785 2 26.270000 3.400000 0.000000 
786 2 25.560000 3.400000 1.229756 
787 2 26.270000 3.400000 2.459512 
788 2 25.560000 3.400000 3.689268 
789 2 26.270000 3.400000 4.919024 
790 2 25.560000 3.400000 6.148780 
791 2 26.270000 3.400000 7.378536 
792 2 25.560000 3.400000 8.608293 
793 2 26.270000 3.400000 9.838049 
794 2 25.560000 3.400000 11.067805 
795 2 26.270000 3.400000 12.297561 
796 2 25.560000 3.400000 13.527317 
797 2 26.270000 3.400000 14.757073 
798 2 25.560000 3.400000 15.986829 
799 2 26.270000 3.400000 17.216585 
800 2 25.560000 3.400000 18.446341 
801 2 26.270000 3.400000 19.676097 
802 2 25.560000 3.400000 20.905853 
803 2 26.270000 3.400000 22.135609 
804 2 25.560000 3.400000 23.365365 
805 2 26.270000 3.400000 24.595121 
806 2 25.560000 3.400000 25.824878 
807 2 26.270000 3.400000 27.054634 
808 2 25.560000 3.400000 28.284390 
809 2 26.270000 3.400000 29.514146 
810 2 25.560000 3.400000 30.743902 
811 2 26.270000 3.400000 31.973658 
812 2 25.560000 3.400000 33.203414 
813 2 27.690000 3.400000 0.000000 
814 2 28.400000 3.400000 1.229756 
815 2 27.690000 3.400000 2.459512 
816 2 28.400000 3.400000 3.689268 
817 2 27.690000 3.400000 4.919024 
818 2 28.400000 3.400000 6.148780 
819 2 27.690000 3.400000 7.378536 
820 2 28.400000 3.400000 8.608293 
821 2 27.690000 3.400000 9.838049 
822 2 28.400000 3.400000 11.067805 
823 2 27.690000 3.400000 12.297561 
824 2 28.400000 3.400000 13.527317 
825 2 27.690000 3.400000 14.757073 
826 2 28.400000 3.400000 15.986829 
827 2 27.690000 3.400000 17.216585 
828 2 28.400000 3.400000 18.446341 
829 2 27.690000 3.400000 19.676097 
830 2 28.400000 3.400000 20.905853 
831 2 27.690000 3.400000 22.135609 
832 2 28.400000 3.400000 23.365365 
833 2 27.690000 3.400000 24.595121 
834 2 28.400000 3.400000 25.824878 
835 2 27.690000 3.400000 27.054634 
836 2 28.400000 3.400000 28.284390 
837 2 27.690000 3.400000 29.514146 
838 2 28.400000 3.400000 30.743902 
839 2 27.690000 3.400000 31.973658 
840 2 28.400000 3.400000 33.203414 
841 2 30.530000 3.400000 0.000000 
842 2 29.820000 3.400000 1.229756 
843 2 30.530000 3.400000 2.459512 
844 2 29.820000 3.400000 3.689268 
845 2 30.530000 3.400000 4.919024 
846 2 29.820000 3.400000 6.148780 
847 2 30.530000 3.400000 7.378536 
848 2 29.820000 3.400000 8.608293 